14
	Energy:      22.4122317
 C             -2.0536789340   2.3723444425  -0.0968763581
 C             -2.9578281707   1.2488451821   0.1759040625
 C             -2.4771694828   0.0689561482   0.6026249949
 C             -0.9876103960  -0.1357009065   0.7685957170
 C             -0.2659547921   1.1743842162   1.1355913821
 H             -0.5804844318  -0.5259819755  -0.1803023711
 H             -0.7802655667  -0.9023034233   1.5249312628
 C             -0.7792527826   2.3459694231   0.3278723157
 H              0.8163418048   1.0542123447   1.0058253270
 H             -0.4212309689   1.3942294111   2.2063229801
 H             -2.4432709790   3.2344992199  -0.6342441062
 H             -0.1166575348   3.1919074396   0.1560510377
 H             -4.0237754294   1.3862930380   0.0062440836
 H             -3.1420860712  -0.7756753177   0.7717905109