15
	Energy: -321365.7885733
C          0.21513       -0.26630        0.00000
C         -0.42789        0.99449        0.00000
C         -1.83189        1.01005       -0.00000
C         -2.55255       -0.16963       -0.00000
C         -1.90327       -1.41429        0.00000
C         -0.52394       -1.45791        0.00000
H         -2.32239        1.97542       -0.00000
H         -3.63585       -0.12797       -0.00000
H         -2.47599       -2.33280        0.00000
H          0.01564       -2.39495        0.00000
N          1.66461       -0.36237        0.00000
O          2.32025        0.69903       -0.00000
O          2.19009       -1.46259       -0.00000
O          0.20737        2.17042        0.00000
H          1.17108        1.98351        0.00000
