9
	Energy:    -390.3629358
 C            -1.5216676658   2.5774310914  -0.0000000000
 C            -1.0893062123   1.2776335623  -0.0000000000
 C             0.3406455555   1.1648089504   0.0000000000
 C             0.9565582166   2.3903826229  -0.0000000000
 S            -0.1946678106   3.6976694369   0.0000000000
 H            -2.5403107660   2.9331657479  -0.0000000000
 H            -1.7543574540   0.4254180270  -0.0000000000
 H             0.8782566331   0.2285083161   0.0000000000
 I             3.0377234703   2.7696444081  -0.0000000000