11
	Energy:      33.5294230
 S           -2.9215097894  -0.1615694536  -0.0221290089
 C           -1.5458238310   0.9214083770  -0.0223188400
 C           -1.9552269796   2.2387296688  -0.0226288015
 C           -3.3659133136   2.3812972257  -0.0227145240
 C           -4.0188007609   1.1713294142  -0.0224675483
 C           -0.1697485243   0.4214446220  -0.0221541682
 O            0.8097029230   1.1465354040  -0.0222767619
 H           -1.2440913982   3.0571487125  -0.0227890005
 H           -3.8817901974   3.3354896663  -0.0229426797
 H           -5.0862878761   0.9921143031  -0.0224705787
 H           -0.0618211248  -0.6849540112  -0.0219043846
