14
	Energy:      12.5764761
 O        -5.9145332003   2.9483796344  -2.4887427007
 C        -8.4539551974   5.8931619994  -0.7004710121
 C        -7.5796900729   4.9457290368  -1.2228255319
 C        -7.9248422642   4.2432166005  -2.3882282059
 C        -9.1492978592   4.4967574027  -3.0203788925
 C        -9.6758756386   6.1445564690  -1.3373702064
 C        -10.0249390804  5.4469701649  -2.4963193643
 C        -6.9994860811   3.2368572525  -2.9568904526
 H        -10.9738392864  5.6448184583  -2.9875637535
 H        -10.3569369025  6.8861100351  -0.9274303393
 H        -9.4093547087   3.9463893079  -3.9226719113
 H        -8.1905551637   6.4407009185   0.2005996140
 H        -6.6256220928   4.7304596756  -0.7505403848
 H        -7.3692601323   2.7369995285  -3.8807658101