4
* (null), Energy   -1000.0000000
C    -1.773631    0.200455   -0.193302   -1.249494   -0.416400   -0.033883
Br    0.042106   -0.151778   -0.244444    0.124015   -0.029507   -0.001824
Br   -3.012169   -1.167475   -0.327006    0.081690    0.098058    0.007398
H    -2.094356    1.189938   -0.469918   -1.416806   -0.472053   -0.038144
4
* Frequency(9)  802.6096
C    -1.915629    0.153134   -0.197153   -1.249494   -0.416400   -0.033883
Br    0.056200   -0.155132   -0.244651    0.124015   -0.029507   -0.001824
Br   -3.002885   -1.156331   -0.326165    0.081690    0.098058    0.007398
H    -2.255369    1.136292   -0.474253   -1.416806   -0.472053   -0.038144
4
* Frequency(9)  802.6096
C    -2.042240    0.110940   -0.200586   -1.249494   -0.416400   -0.033883
Br    0.068766   -0.158122   -0.244836    0.124015   -0.029507   -0.001824
Br   -2.994608   -1.146395   -0.325416    0.081690    0.098058    0.007398
H    -2.398933    1.088459   -0.478118   -1.416806   -0.472053   -0.038144
4
* Frequency(9)  802.6096
C    -2.139743    0.078447   -0.203230   -1.249494   -0.416400   -0.033883
Br    0.078444   -0.160424   -0.244978    0.124015   -0.029507   -0.001824
Br   -2.988233   -1.138743   -0.324838    0.081690    0.098058    0.007398
H    -2.509492    1.051622   -0.481094   -1.416806   -0.472053   -0.038144
4
* Frequency(9)  802.6096
C    -2.197572    0.059175   -0.204798   -1.249494   -0.416400   -0.033883
Br    0.084183   -0.161790   -0.245063    0.124015   -0.029507   -0.001824
Br   -2.984453   -1.134205   -0.324496    0.081690    0.098058    0.007398
H    -2.575065    1.029775   -0.482860   -1.416806   -0.472053   -0.038144
4
* Frequency(9)  802.6096
C    -2.209460    0.055213   -0.205120   -1.249494   -0.416400   -0.033883
Br    0.085363   -0.162071   -0.245080    0.124015   -0.029507   -0.001824
Br   -2.983675   -1.133272   -0.324426    0.081690    0.098058    0.007398
H    -2.588545    1.025284   -0.483223   -1.416806   -0.472053   -0.038144
4
* Frequency(9)  802.6096
C    -2.174120    0.066990   -0.204162   -1.249494   -0.416400   -0.033883
Br    0.081856   -0.161236   -0.245029    0.124015   -0.029507   -0.001824
Br   -2.985986   -1.136045   -0.324635    0.081690    0.098058    0.007398
H    -2.548472    1.038635   -0.482144   -1.416806   -0.472053   -0.038144
4
* Frequency(9)  802.6096
C    -2.095380    0.093231   -0.202027   -1.249494   -0.416400   -0.033883
Br    0.074041   -0.159377   -0.244914    0.124015   -0.029507   -0.001824
Br   -2.991134   -1.142225   -0.325101    0.081690    0.098058    0.007398
H    -2.459189    1.068383   -0.479740   -1.416806   -0.472053   -0.038144
4
* Frequency(9)  802.6096
C    -1.981774    0.131091   -0.198946   -1.249494   -0.416400   -0.033883
Br    0.062765   -0.156694   -0.244748    0.124015   -0.029507   -0.001824
Br   -2.998561   -1.151140   -0.325774    0.081690    0.098058    0.007398
H    -2.330370    1.111303   -0.476272   -1.416806   -0.472053   -0.038144
4
* Frequency(9)  802.6096
C    -1.845612    0.176467   -0.195254   -1.249494   -0.416400   -0.033883
Br    0.049251   -0.153478   -0.244549    0.124015   -0.029507   -0.001824
Br   -3.007463   -1.161826   -0.326580    0.081690    0.098058    0.007398
H    -2.175976    1.162744   -0.472115   -1.416806   -0.472053   -0.038144
4
* Frequency(9)  802.6096
C    -1.701650    0.224443   -0.191350   -1.249494   -0.416400   -0.033883
Br    0.034962   -0.150079   -0.244339    0.124015   -0.029507   -0.001824
Br   -3.016875   -1.173124   -0.327432    0.081690    0.098058    0.007398
H    -2.012737    1.217132   -0.467720   -1.416806   -0.472053   -0.038144
4
* Frequency(9)  802.6096
C    -1.565488    0.269820   -0.187658   -1.249494   -0.416400   -0.033883
Br    0.021448   -0.146863   -0.244140    0.124015   -0.029507   -0.001824
Br   -3.025777   -1.183809   -0.328239    0.081690    0.098058    0.007398
H    -1.858342    1.268573   -0.463564   -1.416806   -0.472053   -0.038144
4
* Frequency(9)  802.6096
C    -1.451882    0.307680   -0.184577   -1.249494   -0.416400   -0.033883
Br    0.010172   -0.144180   -0.243974    0.124015   -0.029507   -0.001824
Br   -3.033205   -1.192725   -0.328911    0.081690    0.098058    0.007398
H    -1.729524    1.311493   -0.460096   -1.416806   -0.472053   -0.038144
4
* Frequency(9)  802.6096
C    -1.373142    0.333920   -0.182442   -1.249494   -0.416400   -0.033883
Br    0.002357   -0.142321   -0.243860    0.124015   -0.029507   -0.001824
Br   -3.038352   -1.198904   -0.329378    0.081690    0.098058    0.007398
H    -1.640241    1.341241   -0.457692   -1.416806   -0.472053   -0.038144
4
* Frequency(9)  802.6096
C    -1.337801    0.345697   -0.181483   -1.249494   -0.416400   -0.033883
Br   -0.001151   -0.141486   -0.243808    0.124015   -0.029507   -0.001824
Br   -3.040663   -1.201678   -0.329587    0.081690    0.098058    0.007398
H    -1.600168    1.354592   -0.456613   -1.416806   -0.472053   -0.038144
4
* Frequency(9)  802.6096
C    -1.349690    0.341736   -0.181806   -1.249494   -0.416400   -0.033883
Br    0.000029   -0.141767   -0.243825    0.124015   -0.029507   -0.001824
Br   -3.039886   -1.200745   -0.329516    0.081690    0.098058    0.007398
H    -1.613648    1.350101   -0.456976   -1.416806   -0.472053   -0.038144
4
* Frequency(9)  802.6096
C    -1.407519    0.322464   -0.183374   -1.249494   -0.416400   -0.033883
Br    0.005769   -0.143133   -0.243910    0.124015   -0.029507   -0.001824
Br   -3.036105   -1.196206   -0.329174    0.081690    0.098058    0.007398
H    -1.679220    1.328253   -0.458741   -1.416806   -0.472053   -0.038144
4
* Frequency(9)  802.6096
C    -1.505021    0.289971   -0.186018   -1.249494   -0.416400   -0.033883
Br    0.015446   -0.145435   -0.244052    0.124015   -0.029507   -0.001824
Br   -3.029730   -1.188555   -0.328597    0.081690    0.098058    0.007398
H    -1.789779    1.291417   -0.461718   -1.416806   -0.472053   -0.038144
4
* Frequency(9)  802.6096
C    -1.631632    0.247777   -0.189451   -1.249494   -0.416400   -0.033883
Br    0.028013   -0.148425   -0.244237    0.124015   -0.029507   -0.001824
Br   -3.021453   -1.178618   -0.327847    0.081690    0.098058    0.007398
H    -1.933344    1.243584   -0.465583   -1.416806   -0.472053   -0.038144
4
* Frequency(9)  802.6096
C    -1.773631    0.200455   -0.193302   -1.249494   -0.416400   -0.033883
Br    0.042106   -0.151778   -0.244444    0.124015   -0.029507   -0.001824
Br   -3.012169   -1.167475   -0.327006    0.081690    0.098058    0.007398
H    -2.094356    1.189938   -0.469918   -1.416806   -0.472053   -0.038144
