11
	Energy:      33.7205546
 O           -2.7449824506   0.2314542830  -0.0222090087
 C           -1.6227418487   1.0263869911  -0.0223465682
 C           -1.9927962991   2.3491723280  -0.0226562557
 C           -3.4150578639   2.3712956689  -0.0227137975
 C           -3.8129545520   1.0612752476  -0.0224353408
 C           -0.3291356020   0.3590772654  -0.0221451930
 O            0.7350036932   0.9545078718  -0.0222350499
 H           -1.3110409191   3.1879941801  -0.0228201262
 H           -4.0615261645   3.2380181620  -0.0229361266
 H           -4.7811546474   0.5821801817  -0.0223620751
 H           -0.3845154638  -0.7499896657  -0.0219009804
